V -t * -v 1.0a5 -a 0
A -t * -n 1 -p 0 -o 0x7fffffff -c 30 -a 1
A -t * -h 1 -m 1073741823 -s 0
n -t * -a 4 -s 4 -S UP -v circle -c black -i black
n -t * -a 0 -s 0 -S UP -v circle -c black -i black
n -t * -a 5 -s 5 -S UP -v circle -c black -i black
n -t * -a 1 -s 1 -S UP -v circle -c black -i black
n -t * -a 2 -s 2 -S UP -v circle -c black -i black
n -t * -a 3 -s 3 -S UP -v circle -c black -i black
l -t * -s 0 -d 1 -S UP -r 100000 -D 0.040000000000000001 -c black
l -t * -s 0 -d 2 -S UP -r 100000 -D 0.10000000000000001 -c black
l -t * -s 0 -d 3 -S UP -r 100000 -D 0.10000000000000001 -c black
l -t * -s 0 -d 5 -S UP -r 100000 -D 0.10000000000000001 -c black
l -t * -s 1 -d 2 -S UP -r 100000 -D 0.040000000000000001 -c black
l -t * -s 1 -d 4 -S UP -r 100000 -D 0.10000000000000001 -c black
l -t * -s 2 -d 5 -S UP -r 100000 -D 0.10000000000000001 -c black
l -t * -s 4 -d 5 -S UP -r 100000 -D 0.10000000000000001 -c black
+ -t 0.000169788487334637 -s 0 -d 1 -p rtProtoDV -e 6 -c 0 -i 0 -a 0 -x {0.1 1.1 -1 ------- null}
- -t 0.000169788487334637 -s 0 -d 1 -p rtProtoDV -e 6 -c 0 -i 0 -a 0 -x {0.1 1.1 -1 ------- null}
h -t 0.000169788487334637 -s 0 -d 1 -p rtProtoDV -e 6 -c 0 -i 0 -a 0 -x {0.1 1.1 -1 ------- null}
+ -t 0.000169788487334637 -s 0 -d 2 -p rtProtoDV -e 6 -c 0 -i 1 -a 0 -x {0.1 2.1 -1 ------- null}
- -t 0.000169788487334637 -s 0 -d 2 -p rtProtoDV -e 6 -c 0 -i 1 -a 0 -x {0.1 2.1 -1 ------- null}
h -t 0.000169788487334637 -s 0 -d 2 -p rtProtoDV -e 6 -c 0 -i 1 -a 0 -x {0.1 2.1 -1 ------- null}
+ -t 0.000169788487334637 -s 0 -d 3 -p rtProtoDV -e 6 -c 0 -i 2 -a 0 -x {0.1 3.2 -1 ------- null}
- -t 0.000169788487334637 -s 0 -d 3 -p rtProtoDV -e 6 -c 0 -i 2 -a 0 -x {0.1 3.2 -1 ------- null}
h -t 0.000169788487334637 -s 0 -d 3 -p rtProtoDV -e 6 -c 0 -i 2 -a 0 -x {0.1 3.2 -1 ------- null}
+ -t 0.000169788487334637 -s 0 -d 5 -p rtProtoDV -e 6 -c 0 -i 3 -a 0 -x {0.1 5.2 -1 ------- null}
- -t 0.000169788487334637 -s 0 -d 5 -p rtProtoDV -e 6 -c 0 -i 3 -a 0 -x {0.1 5.2 -1 ------- null}
h -t 0.000169788487334637 -s 0 -d 5 -p rtProtoDV -e 6 -c 0 -i 3 -a 0 -x {0.1 5.2 -1 ------- null}
+ -t 0.00710233021858257 -s 2 -d 0 -p rtProtoDV -e 6 -c 0 -i 4 -a 0 -x {2.1 0.1 -1 ------- null}
- -t 0.00710233021858257 -s 2 -d 0 -p rtProtoDV -e 6 -c 0 -i 4 -a 0 -x {2.1 0.1 -1 ------- null}
h -t 0.00710233021858257 -s 2 -d 0 -p rtProtoDV -e 6 -c 0 -i 4 -a 0 -x {2.1 0.1 -1 ------- null}
+ -t 0.00710233021858257 -s 2 -d 1 -p rtProtoDV -e 6 -c 0 -i 5 -a 0 -x {2.1 1.1 -1 ------- null}
- -t 0.00710233021858257 -s 2 -d 1 -p rtProtoDV -e 6 -c 0 -i 5 -a 0 -x {2.1 1.1 -1 ------- null}
h -t 0.00710233021858257 -s 2 -d 1 -p rtProtoDV -e 6 -c 0 -i 5 -a 0 -x {2.1 1.1 -1 ------- null}
+ -t 0.00710233021858257 -s 2 -d 5 -p rtProtoDV -e 6 -c 0 -i 6 -a 0 -x {2.1 5.2 -1 ------- null}
- -t 0.00710233021858257 -s 2 -d 5 -p rtProtoDV -e 6 -c 0 -i 6 -a 0 -x {2.1 5.2 -1 ------- null}
h -t 0.00710233021858257 -s 2 -d 5 -p rtProtoDV -e 6 -c 0 -i 6 -a 0 -x {2.1 5.2 -1 ------- null}
r -t 0.0406497884873346 -s 0 -d 1 -p rtProtoDV -e 6 -c 0 -i 0 -a 0 -x {0.1 1.1 -1 ------- null}
+ -t 0.0406497884873346 -s 1 -d 0 -p rtProtoDV -e 6 -c 0 -i 7 -a 0 -x {1.1 0.1 -1 ------- null}
- -t 0.0406497884873346 -s 1 -d 0 -p rtProtoDV -e 6 -c 0 -i 7 -a 0 -x {1.1 0.1 -1 ------- null}
h -t 0.0406497884873346 -s 1 -d 0 -p rtProtoDV -e 6 -c 0 -i 7 -a 0 -x {1.1 0.1 -1 ------- null}
+ -t 0.0406497884873346 -s 1 -d 0 -p rtProtoDV -e 6 -c 0 -i 8 -a 0 -x {1.1 2.1 -1 ------- null}
+ -t 0.0406497884873346 -s 1 -d 4 -p rtProtoDV -e 6 -c 0 -i 9 -a 0 -x {1.1 4.1 -1 ------- null}
- -t 0.0406497884873346 -s 1 -d 4 -p rtProtoDV -e 6 -c 0 -i 9 -a 0 -x {1.1 4.1 -1 ------- null}
h -t 0.0406497884873346 -s 1 -d 4 -p rtProtoDV -e 6 -c 0 -i 9 -a 0 -x {1.1 4.1 -1 ------- null}
- -t 0.0411297884873346 -s 1 -d 0 -p rtProtoDV -e 6 -c 0 -i 8 -a 0 -x {1.1 2.1 -1 ------- null}
h -t 0.0411297884873346 -s 1 -d 0 -p rtProtoDV -e 6 -c 0 -i 8 -a 0 -x {1.1 2.1 -1 ------- null}
+ -t 0.04406133552271 -s 3 -d 0 -p rtProtoDV -e 6 -c 0 -i 10 -a 0 -x {3.2 0.1 -1 ------- null}
- -t 0.04406133552271 -s 3 -d 0 -p rtProtoDV -e 6 -c 0 -i 10 -a 0 -x {3.2 0.1 -1 ------- null}
h -t 0.04406133552271 -s 3 -d 0 -p rtProtoDV -e 6 -c 0 -i 10 -a 0 -x {3.2 0.1 -1 ------- null}
r -t 0.0475823302185826 -s 2 -d 1 -p rtProtoDV -e 6 -c 0 -i 5 -a 0 -x {2.1 1.1 -1 ------- null}
r -t 0.0811297884873346 -s 1 -d 0 -p rtProtoDV -e 6 -c 0 -i 7 -a 0 -x {1.1 0.1 -1 ------- null}
+ -t 0.0811297884873346 -s 0 -d 1 -p rtProtoDV -e 6 -c 0 -i 11 -a 0 -x {0.1 1.1 -1 ------- null}
- -t 0.0811297884873346 -s 0 -d 1 -p rtProtoDV -e 6 -c 0 -i 11 -a 0 -x {0.1 1.1 -1 ------- null}
h -t 0.0811297884873346 -s 0 -d 1 -p rtProtoDV -e 6 -c 0 -i 11 -a 0 -x {0.1 1.1 -1 ------- null}
+ -t 0.0811297884873346 -s 0 -d 2 -p rtProtoDV -e 6 -c 0 -i 12 -a 0 -x {0.1 2.1 -1 ------- null}
- -t 0.0811297884873346 -s 0 -d 2 -p rtProtoDV -e 6 -c 0 -i 12 -a 0 -x {0.1 2.1 -1 ------- null}
h -t 0.0811297884873346 -s 0 -d 2 -p rtProtoDV -e 6 -c 0 -i 12 -a 0 -x {0.1 2.1 -1 ------- null}
+ -t 0.0811297884873346 -s 0 -d 3 -p rtProtoDV -e 6 -c 0 -i 13 -a 0 -x {0.1 3.2 -1 ------- null}
- -t 0.0811297884873346 -s 0 -d 3 -p rtProtoDV -e 6 -c 0 -i 13 -a 0 -x {0.1 3.2 -1 ------- null}
h -t 0.0811297884873346 -s 0 -d 3 -p rtProtoDV -e 6 -c 0 -i 13 -a 0 -x {0.1 3.2 -1 ------- null}
+ -t 0.0811297884873346 -s 0 -d 5 -p rtProtoDV -e 6 -c 0 -i 14 -a 0 -x {0.1 5.2 -1 ------- null}
- -t 0.0811297884873346 -s 0 -d 5 -p rtProtoDV -e 6 -c 0 -i 14 -a 0 -x {0.1 5.2 -1 ------- null}
h -t 0.0811297884873346 -s 0 -d 5 -p rtProtoDV -e 6 -c 0 -i 14 -a 0 -x {0.1 5.2 -1 ------- null}
r -t 0.0816097884873346 -s 1 -d 0 -p rtProtoDV -e 6 -c 0 -i 8 -a 0 -x {1.1 2.1 -1 ------- null}
+ -t 0.0816097884873346 -s 0 -d 2 -p rtProtoDV -e 6 -c 0 -i 8 -a 0 -x {1.1 2.1 -1 ------- null}
- -t 0.0816097884873346 -s 0 -d 2 -p rtProtoDV -e 6 -c 0 -i 8 -a 0 -x {1.1 2.1 -1 ------- null}
h -t 0.0816097884873346 -s 0 -d 2 -p rtProtoDV -e 6 -c 0 -i 8 -a 0 -x {1.1 2.1 -1 ------- null}
r -t 0.100649788487335 -s 0 -d 2 -p rtProtoDV -e 6 -c 0 -i 1 -a 0 -x {0.1 2.1 -1 ------- null}
+ -t 0.100649788487335 -s 2 -d 0 -p rtProtoDV -e 6 -c 0 -i 15 -a 0 -x {2.1 0.1 -1 ------- null}
- -t 0.100649788487335 -s 2 -d 0 -p rtProtoDV -e 6 -c 0 -i 15 -a 0 -x {2.1 0.1 -1 ------- null}
h -t 0.100649788487335 -s 2 -d 0 -p rtProtoDV -e 6 -c 0 -i 15 -a 0 -x {2.1 0.1 -1 ------- null}
+ -t 0.100649788487335 -s 2 -d 0 -p rtProtoDV -e 6 -c 0 -i 16 -a 0 -x {2.1 1.1 -1 ------- null}
+ -t 0.100649788487335 -s 2 -d 0 -p rtProtoDV -e 6 -c 0 -i 17 -a 0 -x {2.1 5.2 -1 ------- null}
r -t 0.100649788487335 -s 0 -d 3 -p rtProtoDV -e 6 -c 0 -i 2 -a 0 -x {0.1 3.2 -1 ------- null}
+ -t 0.100649788487335 -s 3 -d 0 -p rtProtoDV -e 6 -c 0 -i 18 -a 0 -x {3.2 0.1 -1 ------- null}
- -t 0.100649788487335 -s 3 -d 0 -p rtProtoDV -e 6 -c 0 -i 18 -a 0 -x {3.2 0.1 -1 ------- null}
h -t 0.100649788487335 -s 3 -d 0 -p rtProtoDV -e 6 -c 0 -i 18 -a 0 -x {3.2 0.1 -1 ------- null}
r -t 0.100649788487335 -s 0 -d 5 -p rtProtoDV -e 6 -c 0 -i 3 -a 0 -x {0.1 5.2 -1 ------- null}
+ -t 0.100649788487335 -s 5 -d 0 -p rtProtoDV -e 6 -c 0 -i 19 -a 0 -x {5.2 0.1 -1 ------- null}
- -t 0.100649788487335 -s 5 -d 0 -p rtProtoDV -e 6 -c 0 -i 19 -a 0 -x {5.2 0.1 -1 ------- null}
h -t 0.100649788487335 -s 5 -d 0 -p rtProtoDV -e 6 -c 0 -i 19 -a 0 -x {5.2 0.1 -1 ------- null}
+ -t 0.100649788487335 -s 5 -d 0 -p rtProtoDV -e 6 -c 0 -i 20 -a 0 -x {5.2 2.1 -1 ------- null}
+ -t 0.100649788487335 -s 5 -d 4 -p rtProtoDV -e 6 -c 0 -i 21 -a 0 -x {5.2 4.1 -1 ------- null}
- -t 0.100649788487335 -s 5 -d 4 -p rtProtoDV -e 6 -c 0 -i 21 -a 0 -x {5.2 4.1 -1 ------- null}
h -t 0.100649788487335 -s 5 -d 4 -p rtProtoDV -e 6 -c 0 -i 21 -a 0 -x {5.2 4.1 -1 ------- null}
- -t 0.101129788487335 -s 2 -d 0 -p rtProtoDV -e 6 -c 0 -i 16 -a 0 -x {2.1 1.1 -1 ------- null}
h -t 0.101129788487335 -s 2 -d 0 -p rtProtoDV -e 6 -c 0 -i 16 -a 0 -x {2.1 1.1 -1 ------- null}
- -t 0.101129788487335 -s 5 -d 0 -p rtProtoDV -e 6 -c 0 -i 20 -a 0 -x {5.2 2.1 -1 ------- null}
h -t 0.101129788487335 -s 5 -d 0 -p rtProtoDV -e 6 -c 0 -i 20 -a 0 -x {5.2 2.1 -1 ------- null}
- -t 0.101609788487335 -s 2 -d 0 -p rtProtoDV -e 6 -c 0 -i 17 -a 0 -x {2.1 5.2 -1 ------- null}
h -t 0.101609788487335 -s 2 -d 0 -p rtProtoDV -e 6 -c 0 -i 17 -a 0 -x {2.1 5.2 -1 ------- null}
r -t 0.107582330218583 -s 2 -d 0 -p rtProtoDV -e 6 -c 0 -i 4 -a 0 -x {2.1 0.1 -1 ------- null}
+ -t 0.107582330218583 -s 0 -d 1 -p rtProtoDV -e 6 -c 0 -i 22 -a 0 -x {0.1 1.1 -1 ------- null}
- -t 0.107582330218583 -s 0 -d 1 -p rtProtoDV -e 6 -c 0 -i 22 -a 0 -x {0.1 1.1 -1 ------- null}
h -t 0.107582330218583 -s 0 -d 1 -p rtProtoDV -e 6 -c 0 -i 22 -a 0 -x {0.1 1.1 -1 ------- null}
+ -t 0.107582330218583 -s 0 -d 2 -p rtProtoDV -e 6 -c 0 -i 23 -a 0 -x {0.1 2.1 -1 ------- null}
- -t 0.107582330218583 -s 0 -d 2 -p rtProtoDV -e 6 -c 0 -i 23 -a 0 -x {0.1 2.1 -1 ------- null}
h -t 0.107582330218583 -s 0 -d 2 -p rtProtoDV -e 6 -c 0 -i 23 -a 0 -x {0.1 2.1 -1 ------- null}
+ -t 0.107582330218583 -s 0 -d 3 -p rtProtoDV -e 6 -c 0 -i 24 -a 0 -x {0.1 3.2 -1 ------- null}
- -t 0.107582330218583 -s 0 -d 3 -p rtProtoDV -e 6 -c 0 -i 24 -a 0 -x {0.1 3.2 -1 ------- null}
h -t 0.107582330218583 -s 0 -d 3 -p rtProtoDV -e 6 -c 0 -i 24 -a 0 -x {0.1 3.2 -1 ------- null}
+ -t 0.107582330218583 -s 0 -d 2 -p rtProtoDV -e 6 -c 0 -i 25 -a 0 -x {0.1 5.2 -1 ------- null}
r -t 0.107582330218583 -s 2 -d 5 -p rtProtoDV -e 6 -c 0 -i 6 -a 0 -x {2.1 5.2 -1 ------- null}
+ -t 0.107582330218583 -s 5 -d 0 -p rtProtoDV -e 6 -c 0 -i 26 -a 0 -x {5.2 0.1 -1 ------- null}
- -t 0.107582330218583 -s 5 -d 0 -p rtProtoDV -e 6 -c 0 -i 26 -a 0 -x {5.2 0.1 -1 ------- null}
h -t 0.107582330218583 -s 5 -d 0 -p rtProtoDV -e 6 -c 0 -i 26 -a 0 -x {5.2 0.1 -1 ------- null}
+ -t 0.107582330218583 -s 5 -d 2 -p rtProtoDV -e 6 -c 0 -i 27 -a 0 -x {5.2 2.1 -1 ------- null}
- -t 0.107582330218583 -s 5 -d 2 -p rtProtoDV -e 6 -c 0 -i 27 -a 0 -x {5.2 2.1 -1 ------- null}
h -t 0.107582330218583 -s 5 -d 2 -p rtProtoDV -e 6 -c 0 -i 27 -a 0 -x {5.2 2.1 -1 ------- null}
+ -t 0.107582330218583 -s 5 -d 4 -p rtProtoDV -e 6 -c 0 -i 28 -a 0 -x {5.2 4.1 -1 ------- null}
- -t 0.107582330218583 -s 5 -d 4 -p rtProtoDV -e 6 -c 0 -i 28 -a 0 -x {5.2 4.1 -1 ------- null}
h -t 0.107582330218583 -s 5 -d 4 -p rtProtoDV -e 6 -c 0 -i 28 -a 0 -x {5.2 4.1 -1 ------- null}
- -t 0.108062330218583 -s 0 -d 2 -p rtProtoDV -e 6 -c 0 -i 25 -a 0 -x {0.1 5.2 -1 ------- null}
h -t 0.108062330218583 -s 0 -d 2 -p rtProtoDV -e 6 -c 0 -i 25 -a 0 -x {0.1 5.2 -1 ------- null}
r -t 0.121609788487335 -s 0 -d 1 -p rtProtoDV -e 6 -c 0 -i 11 -a 0 -x {0.1 1.1 -1 ------- null}
r -t 0.141129788487335 -s 1 -d 4 -p rtProtoDV -e 6 -c 0 -i 9 -a 0 -x {1.1 4.1 -1 ------- null}
+ -t 0.141129788487335 -s 4 -d 1 -p rtProtoDV -e 6 -c 0 -i 29 -a 0 -x {4.1 1.1 -1 ------- null}
- -t 0.141129788487335 -s 4 -d 1 -p rtProtoDV -e 6 -c 0 -i 29 -a 0 -x {4.1 1.1 -1 ------- null}
h -t 0.141129788487335 -s 4 -d 1 -p rtProtoDV -e 6 -c 0 -i 29 -a 0 -x {4.1 1.1 -1 ------- null}
+ -t 0.141129788487335 -s 4 -d 1 -p rtProtoDV -e 6 -c 0 -i 30 -a 0 -x {4.1 5.2 -1 ------- null}
- -t 0.141609788487335 -s 4 -d 1 -p rtProtoDV -e 6 -c 0 -i 30 -a 0 -x {4.1 5.2 -1 ------- null}
h -t 0.141609788487335 -s 4 -d 1 -p rtProtoDV -e 6 -c 0 -i 30 -a 0 -x {4.1 5.2 -1 ------- null}
r -t 0.14454133552271 -s 3 -d 0 -p rtProtoDV -e 6 -c 0 -i 10 -a 0 -x {3.2 0.1 -1 ------- null}
+ -t 0.14454133552271 -s 0 -d 1 -p rtProtoDV -e 6 -c 0 -i 31 -a 0 -x {0.1 1.1 -1 ------- null}
- -t 0.14454133552271 -s 0 -d 1 -p rtProtoDV -e 6 -c 0 -i 31 -a 0 -x {0.1 1.1 -1 ------- null}
h -t 0.14454133552271 -s 0 -d 1 -p rtProtoDV -e 6 -c 0 -i 31 -a 0 -x {0.1 1.1 -1 ------- null}
+ -t 0.14454133552271 -s 0 -d 2 -p rtProtoDV -e 6 -c 0 -i 32 -a 0 -x {0.1 2.1 -1 ------- null}
- -t 0.14454133552271 -s 0 -d 2 -p rtProtoDV -e 6 -c 0 -i 32 -a 0 -x {0.1 2.1 -1 ------- null}
h -t 0.14454133552271 -s 0 -d 2 -p rtProtoDV -e 6 -c 0 -i 32 -a 0 -x {0.1 2.1 -1 ------- null}
+ -t 0.14454133552271 -s 0 -d 3 -p rtProtoDV -e 6 -c 0 -i 33 -a 0 -x {0.1 3.2 -1 ------- null}
- -t 0.14454133552271 -s 0 -d 3 -p rtProtoDV -e 6 -c 0 -i 33 -a 0 -x {0.1 3.2 -1 ------- null}
h -t 0.14454133552271 -s 0 -d 3 -p rtProtoDV -e 6 -c 0 -i 33 -a 0 -x {0.1 3.2 -1 ------- null}
+ -t 0.14454133552271 -s 0 -d 2 -p rtProtoDV -e 6 -c 0 -i 34 -a 0 -x {0.1 5.2 -1 ------- null}
- -t 0.14502133552271 -s 0 -d 2 -p rtProtoDV -e 6 -c 0 -i 34 -a 0 -x {0.1 5.2 -1 ------- null}
h -t 0.14502133552271 -s 0 -d 2 -p rtProtoDV -e 6 -c 0 -i 34 -a 0 -x {0.1 5.2 -1 ------- null}
r -t 0.148062330218583 -s 0 -d 1 -p rtProtoDV -e 6 -c 0 -i 22 -a 0 -x {0.1 1.1 -1 ------- null}
+ -t 0.148062330218583 -s 1 -d 0 -p rtProtoDV -e 6 -c 0 -i 35 -a 0 -x {1.1 0.1 -1 ------- null}
- -t 0.148062330218583 -s 1 -d 0 -p rtProtoDV -e 6 -c 0 -i 35 -a 0 -x {1.1 0.1 -1 ------- null}
h -t 0.148062330218583 -s 1 -d 0 -p rtProtoDV -e 6 -c 0 -i 35 -a 0 -x {1.1 0.1 -1 ------- null}
+ -t 0.148062330218583 -s 1 -d 0 -p rtProtoDV -e 6 -c 0 -i 36 -a 0 -x {1.1 2.1 -1 ------- null}
+ -t 0.148062330218583 -s 1 -d 4 -p rtProtoDV -e 6 -c 0 -i 37 -a 0 -x {1.1 4.1 -1 ------- null}
- -t 0.148062330218583 -s 1 -d 4 -p rtProtoDV -e 6 -c 0 -i 37 -a 0 -x {1.1 4.1 -1 ------- null}
h -t 0.148062330218583 -s 1 -d 4 -p rtProtoDV -e 6 -c 0 -i 37 -a 0 -x {1.1 4.1 -1 ------- null}
- -t 0.148542330218583 -s 1 -d 0 -p rtProtoDV -e 6 -c 0 -i 36 -a 0 -x {1.1 2.1 -1 ------- null}
h -t 0.148542330218583 -s 1 -d 0 -p rtProtoDV -e 6 -c 0 -i 36 -a 0 -x {1.1 2.1 -1 ------- null}
r -t 0.181609788487335 -s 0 -d 2 -p rtProtoDV -e 6 -c 0 -i 12 -a 0 -x {0.1 2.1 -1 ------- null}
+ -t 0.181609788487335 -s 2 -d 0 -p rtProtoDV -e 6 -c 0 -i 38 -a 0 -x {2.1 0.1 -1 ------- null}
- -t 0.181609788487335 -s 2 -d 0 -p rtProtoDV -e 6 -c 0 -i 38 -a 0 -x {2.1 0.1 -1 ------- null}
h -t 0.181609788487335 -s 2 -d 0 -p rtProtoDV -e 6 -c 0 -i 38 -a 0 -x {2.1 0.1 -1 ------- null}
+ -t 0.181609788487335 -s 2 -d 0 -p rtProtoDV -e 6 -c 0 -i 39 -a 0 -x {2.1 1.1 -1 ------- null}
+ -t 0.181609788487335 -s 2 -d 0 -p rtProtoDV -e 6 -c 0 -i 40 -a 0 -x {2.1 5.2 -1 ------- null}
r -t 0.181609788487335 -s 0 -d 3 -p rtProtoDV -e 6 -c 0 -i 13 -a 0 -x {0.1 3.2 -1 ------- null}
+ -t 0.181609788487335 -s 3 -d 0 -p rtProtoDV -e 6 -c 0 -i 41 -a 0 -x {3.2 0.1 -1 ------- null}
- -t 0.181609788487335 -s 3 -d 0 -p rtProtoDV -e 6 -c 0 -i 41 -a 0 -x {3.2 0.1 -1 ------- null}
h -t 0.181609788487335 -s 3 -d 0 -p rtProtoDV -e 6 -c 0 -i 41 -a 0 -x {3.2 0.1 -1 ------- null}
r -t 0.181609788487335 -s 0 -d 5 -p rtProtoDV -e 6 -c 0 -i 14 -a 0 -x {0.1 5.2 -1 ------- null}
+ -t 0.181609788487335 -s 5 -d 0 -p rtProtoDV -e 6 -c 0 -i 42 -a 0 -x {5.2 0.1 -1 ------- null}
- -t 0.181609788487335 -s 5 -d 0 -p rtProtoDV -e 6 -c 0 -i 42 -a 0 -x {5.2 0.1 -1 ------- null}
h -t 0.181609788487335 -s 5 -d 0 -p rtProtoDV -e 6 -c 0 -i 42 -a 0 -x {5.2 0.1 -1 ------- null}
+ -t 0.181609788487335 -s 5 -d 2 -p rtProtoDV -e 6 -c 0 -i 43 -a 0 -x {5.2 2.1 -1 ------- null}
- -t 0.181609788487335 -s 5 -d 2 -p rtProtoDV -e 6 -c 0 -i 43 -a 0 -x {5.2 2.1 -1 ------- null}
h -t 0.181609788487335 -s 5 -d 2 -p rtProtoDV -e 6 -c 0 -i 43 -a 0 -x {5.2 2.1 -1 ------- null}
+ -t 0.181609788487335 -s 5 -d 0 -p rtProtoDV -e 6 -c 0 -i 44 -a 0 -x {5.2 4.1 -1 ------- null}
r -t 0.182089788487335 -s 0 -d 2 -p rtProtoDV -e 6 -c 0 -i 8 -a 0 -x {1.1 2.1 -1 ------- null}
+ -t 0.182089788487335 -s 2 -d 0 -p rtProtoDV -e 6 -c 0 -i 45 -a 0 -x {2.1 0.1 -1 ------- null}
+ -t 0.182089788487335 -s 2 -d 1 -p rtProtoDV -e 6 -c 0 -i 46 -a 0 -x {2.1 1.1 -1 ------- null}
- -t 0.182089788487335 -s 2 -d 1 -p rtProtoDV -e 6 -c 0 -i 46 -a 0 -x {2.1 1.1 -1 ------- null}
h -t 0.182089788487335 -s 2 -d 1 -p rtProtoDV -e 6 -c 0 -i 46 -a 0 -x {2.1 1.1 -1 ------- null}
+ -t 0.182089788487335 -s 2 -d 0 -p rtProtoDV -e 6 -c 0 -i 47 -a 0 -x {2.1 5.2 -1 ------- null}
- -t 0.182089788487335 -s 2 -d 0 -p rtProtoDV -e 6 -c 0 -i 39 -a 0 -x {2.1 1.1 -1 ------- null}
h -t 0.182089788487335 -s 2 -d 0 -p rtProtoDV -e 6 -c 0 -i 39 -a 0 -x {2.1 1.1 -1 ------- null}
- -t 0.182089788487335 -s 5 -d 0 -p rtProtoDV -e 6 -c 0 -i 44 -a 0 -x {5.2 4.1 -1 ------- null}
h -t 0.182089788487335 -s 5 -d 0 -p rtProtoDV -e 6 -c 0 -i 44 -a 0 -x {5.2 4.1 -1 ------- null}
- -t 0.182569788487335 -s 2 -d 0 -p rtProtoDV -e 6 -c 0 -i 40 -a 0 -x {2.1 5.2 -1 ------- null}
h -t 0.182569788487335 -s 2 -d 0 -p rtProtoDV -e 6 -c 0 -i 40 -a 0 -x {2.1 5.2 -1 ------- null}
- -t 0.183049788487335 -s 2 -d 0 -p rtProtoDV -e 6 -c 0 -i 45 -a 0 -x {2.1 0.1 -1 ------- null}
h -t 0.183049788487335 -s 2 -d 0 -p rtProtoDV -e 6 -c 0 -i 45 -a 0 -x {2.1 0.1 -1 ------- null}
- -t 0.183529788487335 -s 2 -d 0 -p rtProtoDV -e 6 -c 0 -i 47 -a 0 -x {2.1 5.2 -1 ------- null}
h -t 0.183529788487335 -s 2 -d 0 -p rtProtoDV -e 6 -c 0 -i 47 -a 0 -x {2.1 5.2 -1 ------- null}
r -t 0.18502133552271 -s 0 -d 1 -p rtProtoDV -e 6 -c 0 -i 31 -a 0 -x {0.1 1.1 -1 ------- null}
r -t 0.188542330218583 -s 1 -d 0 -p rtProtoDV -e 6 -c 0 -i 35 -a 0 -x {1.1 0.1 -1 ------- null}
r -t 0.189022330218583 -s 1 -d 0 -p rtProtoDV -e 6 -c 0 -i 36 -a 0 -x {1.1 2.1 -1 ------- null}
+ -t 0.189022330218583 -s 0 -d 2 -p rtProtoDV -e 6 -c 0 -i 36 -a 0 -x {1.1 2.1 -1 ------- null}
- -t 0.189022330218583 -s 0 -d 2 -p rtProtoDV -e 6 -c 0 -i 36 -a 0 -x {1.1 2.1 -1 ------- null}
h -t 0.189022330218583 -s 0 -d 2 -p rtProtoDV -e 6 -c 0 -i 36 -a 0 -x {1.1 2.1 -1 ------- null}
r -t 0.201129788487335 -s 2 -d 0 -p rtProtoDV -e 6 -c 0 -i 15 -a 0 -x {2.1 0.1 -1 ------- null}
+ -t 0.201129788487335 -s 0 -d 1 -p rtProtoDV -e 6 -c 0 -i 48 -a 0 -x {0.1 1.1 -1 ------- null}
- -t 0.201129788487335 -s 0 -d 1 -p rtProtoDV -e 6 -c 0 -i 48 -a 0 -x {0.1 1.1 -1 ------- null}
h -t 0.201129788487335 -s 0 -d 1 -p rtProtoDV -e 6 -c 0 -i 48 -a 0 -x {0.1 1.1 -1 ------- null}
+ -t 0.201129788487335 -s 0 -d 2 -p rtProtoDV -e 6 -c 0 -i 49 -a 0 -x {0.1 2.1 -1 ------- null}
- -t 0.201129788487335 -s 0 -d 2 -p rtProtoDV -e 6 -c 0 -i 49 -a 0 -x {0.1 2.1 -1 ------- null}
h -t 0.201129788487335 -s 0 -d 2 -p rtProtoDV -e 6 -c 0 -i 49 -a 0 -x {0.1 2.1 -1 ------- null}
+ -t 0.201129788487335 -s 0 -d 3 -p rtProtoDV -e 6 -c 0 -i 50 -a 0 -x {0.1 3.2 -1 ------- null}
- -t 0.201129788487335 -s 0 -d 3 -p rtProtoDV -e 6 -c 0 -i 50 -a 0 -x {0.1 3.2 -1 ------- null}
h -t 0.201129788487335 -s 0 -d 3 -p rtProtoDV -e 6 -c 0 -i 50 -a 0 -x {0.1 3.2 -1 ------- null}
+ -t 0.201129788487335 -s 0 -d 2 -p rtProtoDV -e 6 -c 0 -i 51 -a 0 -x {0.1 5.2 -1 ------- null}
r -t 0.201129788487335 -s 3 -d 0 -p rtProtoDV -e 6 -c 0 -i 18 -a 0 -x {3.2 0.1 -1 ------- null}
r -t 0.201129788487335 -s 5 -d 0 -p rtProtoDV -e 6 -c 0 -i 19 -a 0 -x {5.2 0.1 -1 ------- null}
+ -t 0.201129788487335 -s 0 -d 1 -p rtProtoDV -e 6 -c 0 -i 52 -a 0 -x {0.1 1.1 -1 ------- null}
+ -t 0.201129788487335 -s 0 -d 2 -p rtProtoDV -e 6 -c 0 -i 53 -a 0 -x {0.1 2.1 -1 ------- null}
+ -t 0.201129788487335 -s 0 -d 3 -p rtProtoDV -e 6 -c 0 -i 54 -a 0 -x {0.1 3.2 -1 ------- null}
+ -t 0.201129788487335 -s 0 -d 5 -p rtProtoDV -e 6 -c 0 -i 55 -a 0 -x {0.1 5.2 -1 ------- null}
- -t 0.201129788487335 -s 0 -d 5 -p rtProtoDV -e 6 -c 0 -i 55 -a 0 -x {0.1 5.2 -1 ------- null}
h -t 0.201129788487335 -s 0 -d 5 -p rtProtoDV -e 6 -c 0 -i 55 -a 0 -x {0.1 5.2 -1 ------- null}
r -t 0.201129788487335 -s 5 -d 4 -p rtProtoDV -e 6 -c 0 -i 21 -a 0 -x {5.2 4.1 -1 ------- null}
r -t 0.201609788487335 -s 2 -d 0 -p rtProtoDV -e 6 -c 0 -i 16 -a 0 -x {2.1 1.1 -1 ------- null}
+ -t 0.201609788487335 -s 0 -d 1 -p rtProtoDV -e 6 -c 0 -i 16 -a 0 -x {2.1 1.1 -1 ------- null}
r -t 0.201609788487335 -s 5 -d 0 -p rtProtoDV -e 6 -c 0 -i 20 -a 0 -x {5.2 2.1 -1 ------- null}
+ -t 0.201609788487335 -s 0 -d 2 -p rtProtoDV -e 6 -c 0 -i 20 -a 0 -x {5.2 2.1 -1 ------- null}
- -t 0.201609788487335 -s 0 -d 1 -p rtProtoDV -e 6 -c 0 -i 52 -a 0 -x {0.1 1.1 -1 ------- null}
h -t 0.201609788487335 -s 0 -d 1 -p rtProtoDV -e 6 -c 0 -i 52 -a 0 -x {0.1 1.1 -1 ------- null}
- -t 0.201609788487335 -s 0 -d 2 -p rtProtoDV -e 6 -c 0 -i 51 -a 0 -x {0.1 5.2 -1 ------- null}
h -t 0.201609788487335 -s 0 -d 2 -p rtProtoDV -e 6 -c 0 -i 51 -a 0 -x {0.1 5.2 -1 ------- null}
- -t 0.201609788487335 -s 0 -d 3 -p rtProtoDV -e 6 -c 0 -i 54 -a 0 -x {0.1 3.2 -1 ------- null}
h -t 0.201609788487335 -s 0 -d 3 -p rtProtoDV -e 6 -c 0 -i 54 -a 0 -x {0.1 3.2 -1 ------- null}
r -t 0.202089788487335 -s 2 -d 0 -p rtProtoDV -e 6 -c 0 -i 17 -a 0 -x {2.1 5.2 -1 ------- null}
+ -t 0.202089788487335 -s 0 -d 5 -p rtProtoDV -e 6 -c 0 -i 17 -a 0 -x {2.1 5.2 -1 ------- null}
- -t 0.202089788487335 -s 0 -d 5 -p rtProtoDV -e 6 -c 0 -i 17 -a 0 -x {2.1 5.2 -1 ------- null}
h -t 0.202089788487335 -s 0 -d 5 -p rtProtoDV -e 6 -c 0 -i 17 -a 0 -x {2.1 5.2 -1 ------- null}
- -t 0.202089788487335 -s 0 -d 1 -p rtProtoDV -e 6 -c 0 -i 16 -a 0 -x {2.1 1.1 -1 ------- null}
h -t 0.202089788487335 -s 0 -d 1 -p rtProtoDV -e 6 -c 0 -i 16 -a 0 -x {2.1 1.1 -1 ------- null}
- -t 0.202089788487335 -s 0 -d 2 -p rtProtoDV -e 6 -c 0 -i 53 -a 0 -x {0.1 2.1 -1 ------- null}
h -t 0.202089788487335 -s 0 -d 2 -p rtProtoDV -e 6 -c 0 -i 53 -a 0 -x {0.1 2.1 -1 ------- null}
- -t 0.202569788487335 -s 0 -d 2 -p rtProtoDV -e 6 -c 0 -i 20 -a 0 -x {5.2 2.1 -1 ------- null}
h -t 0.202569788487335 -s 0 -d 2 -p rtProtoDV -e 6 -c 0 -i 20 -a 0 -x {5.2 2.1 -1 ------- null}
r -t 0.208062330218583 -s 0 -d 2 -p rtProtoDV -e 6 -c 0 -i 23 -a 0 -x {0.1 2.1 -1 ------- null}
+ -t 0.208062330218583 -s 2 -d 0 -p rtProtoDV -e 6 -c 0 -i 56 -a 0 -x {2.1 0.1 -1 ------- null}
- -t 0.208062330218583 -s 2 -d 0 -p rtProtoDV -e 6 -c 0 -i 56 -a 0 -x {2.1 0.1 -1 ------- null}
h -t 0.208062330218583 -s 2 -d 0 -p rtProtoDV -e 6 -c 0 -i 56 -a 0 -x {2.1 0.1 -1 ------- null}
+ -t 0.208062330218583 -s 2 -d 1 -p rtProtoDV -e 6 -c 0 -i 57 -a 0 -x {2.1 1.1 -1 ------- null}
- -t 0.208062330218583 -s 2 -d 1 -p rtProtoDV -e 6 -c 0 -i 57 -a 0 -x {2.1 1.1 -1 ------- null}
h -t 0.208062330218583 -s 2 -d 1 -p rtProtoDV -e 6 -c 0 -i 57 -a 0 -x {2.1 1.1 -1 ------- null}
+ -t 0.208062330218583 -s 2 -d 1 -p rtProtoDV -e 6 -c 0 -i 58 -a 0 -x {2.1 5.2 -1 ------- null}
r -t 0.208062330218583 -s 0 -d 3 -p rtProtoDV -e 6 -c 0 -i 24 -a 0 -x {0.1 3.2 -1 ------- null}
+ -t 0.208062330218583 -s 3 -d 0 -p rtProtoDV -e 6 -c 0 -i 59 -a 0 -x {3.2 0.1 -1 ------- null}
- -t 0.208062330218583 -s 3 -d 0 -p rtProtoDV -e 6 -c 0 -i 59 -a 0 -x {3.2 0.1 -1 ------- null}
h -t 0.208062330218583 -s 3 -d 0 -p rtProtoDV -e 6 -c 0 -i 59 -a 0 -x {3.2 0.1 -1 ------- null}
r -t 0.208062330218583 -s 5 -d 0 -p rtProtoDV -e 6 -c 0 -i 26 -a 0 -x {5.2 0.1 -1 ------- null}
r -t 0.208062330218583 -s 5 -d 2 -p rtProtoDV -e 6 -c 0 -i 27 -a 0 -x {5.2 2.1 -1 ------- null}
+ -t 0.208062330218583 -s 2 -d 0 -p rtProtoDV -e 6 -c 0 -i 60 -a 0 -x {2.1 0.1 -1 ------- null}
+ -t 0.208062330218583 -s 2 -d 1 -p rtProtoDV -e 6 -c 0 -i 61 -a 0 -x {2.1 1.1 -1 ------- null}
+ -t 0.208062330218583 -s 2 -d 5 -p rtProtoDV -e 6 -c 0 -i 62 -a 0 -x {2.1 5.2 -1 ------- null}
- -t 0.208062330218583 -s 2 -d 5 -p rtProtoDV -e 6 -c 0 -i 62 -a 0 -x {2.1 5.2 -1 ------- null}
h -t 0.208062330218583 -s 2 -d 5 -p rtProtoDV -e 6 -c 0 -i 62 -a 0 -x {2.1 5.2 -1 ------- null}
r -t 0.208062330218583 -s 5 -d 4 -p rtProtoDV -e 6 -c 0 -i 28 -a 0 -x {5.2 4.1 -1 ------- null}
r -t 0.208542330218583 -s 0 -d 2 -p rtProtoDV -e 6 -c 0 -i 25 -a 0 -x {0.1 5.2 -1 ------- null}
+ -t 0.208542330218583 -s 2 -d 5 -p rtProtoDV -e 6 -c 0 -i 25 -a 0 -x {0.1 5.2 -1 ------- null}
- -t 0.208542330218583 -s 2 -d 0 -p rtProtoDV -e 6 -c 0 -i 60 -a 0 -x {2.1 0.1 -1 ------- null}
h -t 0.208542330218583 -s 2 -d 0 -p rtProtoDV -e 6 -c 0 -i 60 -a 0 -x {2.1 0.1 -1 ------- null}
- -t 0.208542330218583 -s 2 -d 1 -p rtProtoDV -e 6 -c 0 -i 58 -a 0 -x {2.1 5.2 -1 ------- null}
h -t 0.208542330218583 -s 2 -d 1 -p rtProtoDV -e 6 -c 0 -i 58 -a 0 -x {2.1 5.2 -1 ------- null}
- -t 0.208542330218583 -s 2 -d 5 -p rtProtoDV -e 6 -c 0 -i 25 -a 0 -x {0.1 5.2 -1 ------- null}
h -t 0.208542330218583 -s 2 -d 5 -p rtProtoDV -e 6 -c 0 -i 25 -a 0 -x {0.1 5.2 -1 ------- null}
- -t 0.209022330218583 -s 2 -d 1 -p rtProtoDV -e 6 -c 0 -i 61 -a 0 -x {2.1 1.1 -1 ------- null}
h -t 0.209022330218583 -s 2 -d 1 -p rtProtoDV -e 6 -c 0 -i 61 -a 0 -x {2.1 1.1 -1 ------- null}
+ -t 0.22058669092161 -s 4 -d 1 -p rtProtoDV -e 6 -c 0 -i 63 -a 0 -x {4.1 1.1 -1 ------- null}
- -t 0.22058669092161 -s 4 -d 1 -p rtProtoDV -e 6 -c 0 -i 63 -a 0 -x {4.1 1.1 -1 ------- null}
h -t 0.22058669092161 -s 4 -d 1 -p rtProtoDV -e 6 -c 0 -i 63 -a 0 -x {4.1 1.1 -1 ------- null}
+ -t 0.22058669092161 -s 4 -d 1 -p rtProtoDV -e 6 -c 0 -i 64 -a 0 -x {4.1 5.2 -1 ------- null}
- -t 0.22106669092161 -s 4 -d 1 -p rtProtoDV -e 6 -c 0 -i 64 -a 0 -x {4.1 5.2 -1 ------- null}
h -t 0.22106669092161 -s 4 -d 1 -p rtProtoDV -e 6 -c 0 -i 64 -a 0 -x {4.1 5.2 -1 ------- null}
r -t 0.222569788487335 -s 2 -d 1 -p rtProtoDV -e 6 -c 0 -i 46 -a 0 -x {2.1 1.1 -1 ------- null}
r -t 0.241609788487335 -s 4 -d 1 -p rtProtoDV -e 6 -c 0 -i 29 -a 0 -x {4.1 1.1 -1 ------- null}
+ -t 0.241609788487335 -s 1 -d 0 -p rtProtoDV -e 6 -c 0 -i 65 -a 0 -x {1.1 0.1 -1 ------- null}
- -t 0.241609788487335 -s 1 -d 0 -p rtProtoDV -e 6 -c 0 -i 65 -a 0 -x {1.1 0.1 -1 ------- null}
h -t 0.241609788487335 -s 1 -d 0 -p rtProtoDV -e 6 -c 0 -i 65 -a 0 -x {1.1 0.1 -1 ------- null}
+ -t 0.241609788487335 -s 1 -d 0 -p rtProtoDV -e 6 -c 0 -i 66 -a 0 -x {1.1 2.1 -1 ------- null}
+ -t 0.241609788487335 -s 1 -d 4 -p rtProtoDV -e 6 -c 0 -i 67 -a 0 -x {1.1 4.1 -1 ------- null}
- -t 0.241609788487335 -s 1 -d 4 -p rtProtoDV -e 6 -c 0 -i 67 -a 0 -x {1.1 4.1 -1 ------- null}
h -t 0.241609788487335 -s 1 -d 4 -p rtProtoDV -e 6 -c 0 -i 67 -a 0 -x {1.1 4.1 -1 ------- null}
r -t 0.241609788487335 -s 0 -d 1 -p rtProtoDV -e 6 -c 0 -i 48 -a 0 -x {0.1 1.1 -1 ------- null}
+ -t 0.241609788487335 -s 1 -d 0 -p rtProtoDV -e 6 -c 0 -i 68 -a 0 -x {1.1 0.1 -1 ------- null}
+ -t 0.241609788487335 -s 1 -d 0 -p rtProtoDV -e 6 -c 0 -i 69 -a 0 -x {1.1 2.1 -1 ------- null}
+ -t 0.241609788487335 -s 1 -d 4 -p rtProtoDV -e 6 -c 0 -i 70 -a 0 -x {1.1 4.1 -1 ------- null}
r -t 0.242089788487335 -s 4 -d 1 -p rtProtoDV -e 6 -c 0 -i 30 -a 0 -x {4.1 5.2 -1 ------- null}
+ -t 0.242089788487335 -s 1 -d 0 -p rtProtoDV -e 6 -c 0 -i 30 -a 0 -x {4.1 5.2 -1 ------- null}
r -t 0.242089788487335 -s 0 -d 1 -p rtProtoDV -e 6 -c 0 -i 52 -a 0 -x {0.1 1.1 -1 ------- null}
+ -t 0.242089788487335 -s 1 -d 0 -p rtProtoDV -e 6 -c 0 -i 71 -a 0 -x {1.1 0.1 -1 ------- null}
+ -t 0.242089788487335 -s 1 -d 0 -p rtProtoDV -e 6 -c 0 -i 72 -a 0 -x {1.1 2.1 -1 ------- null}
+ -t 0.242089788487335 -s 1 -d 4 -p rtProtoDV -e 6 -c 0 -i 73 -a 0 -x {1.1 4.1 -1 ------- null}
- -t 0.242089788487335 -s 1 -d 0 -p rtProtoDV -e 6 -c 0 -i 66 -a 0 -x {1.1 2.1 -1 ------- null}
h -t 0.242089788487335 -s 1 -d 0 -p rtProtoDV -e 6 -c 0 -i 66 -a 0 -x {1.1 2.1 -1 ------- null}
- -t 0.242089788487335 -s 1 -d 4 -p rtProtoDV -e 6 -c 0 -i 70 -a 0 -x {1.1 4.1 -1 ------- null}
h -t 0.242089788487335 -s 1 -d 4 -p rtProtoDV -e 6 -c 0 -i 70 -a 0 -x {1.1 4.1 -1 ------- null}
r -t 0.242569788487335 -s 0 -d 1 -p rtProtoDV -e 6 -c 0 -i 16 -a 0 -x {2.1 1.1 -1 ------- null}
- -t 0.242569788487335 -s 1 -d 0 -p rtProtoDV -e 6 -c 0 -i 68 -a 0 -x {1.1 0.1 -1 ------- null}
h -t 0.242569788487335 -s 1 -d 0 -p rtProtoDV -e 6 -c 0 -i 68 -a 0 -x {1.1 0.1 -1 ------- null}
- -t 0.242569788487335 -s 1 -d 4 -p rtProtoDV -e 6 -c 0 -i 73 -a 0 -x {1.1 4.1 -1 ------- null}
h -t 0.242569788487335 -s 1 -d 4 -p rtProtoDV -e 6 -c 0 -i 73 -a 0 -x {1.1 4.1 -1 ------- null}
- -t 0.243049788487335 -s 1 -d 0 -p rtProtoDV -e 6 -c 0 -i 69 -a 0 -x {1.1 2.1 -1 ------- null}
h -t 0.243049788487335 -s 1 -d 0 -p rtProtoDV -e 6 -c 0 -i 69 -a 0 -x {1.1 2.1 -1 ------- null}
- -t 0.243529788487335 -s 1 -d 0 -p rtProtoDV -e 6 -c 0 -i 30 -a 0 -x {4.1 5.2 -1 ------- null}
h -t 0.243529788487335 -s 1 -d 0 -p rtProtoDV -e 6 -c 0 -i 30 -a 0 -x {4.1 5.2 -1 ------- null}
- -t 0.244009788487335 -s 1 -d 0 -p rtProtoDV -e 6 -c 0 -i 71 -a 0 -x {1.1 0.1 -1 ------- null}
h -t 0.244009788487335 -s 1 -d 0 -p rtProtoDV -e 6 -c 0 -i 71 -a 0 -x {1.1 0.1 -1 ------- null}
- -t 0.244489788487335 -s 1 -d 0 -p rtProtoDV -e 6 -c 0 -i 72 -a 0 -x {1.1 2.1 -1 ------- null}
h -t 0.244489788487335 -s 1 -d 0 -p rtProtoDV -e 6 -c 0 -i 72 -a 0 -x {1.1 2.1 -1 ------- null}
r -t 0.24502133552271 -s 0 -d 2 -p rtProtoDV -e 6 -c 0 -i 32 -a 0 -x {0.1 2.1 -1 ------- null}
r -t 0.24502133552271 -s 0 -d 3 -p rtProtoDV -e 6 -c 0 -i 33 -a 0 -x {0.1 3.2 -1 ------- null}
r -t 0.24550133552271 -s 0 -d 2 -p rtProtoDV -e 6 -c 0 -i 34 -a 0 -x {0.1 5.2 -1 ------- null}
+ -t 0.24550133552271 -s 2 -d 5 -p rtProtoDV -e 6 -c 0 -i 34 -a 0 -x {0.1 5.2 -1 ------- null}
- -t 0.24550133552271 -s 2 -d 5 -p rtProtoDV -e 6 -c 0 -i 34 -a 0 -x {0.1 5.2 -1 ------- null}
h -t 0.24550133552271 -s 2 -d 5 -p rtProtoDV -e 6 -c 0 -i 34 -a 0 -x {0.1 5.2 -1 ------- null}
r -t 0.248542330218583 -s 1 -d 4 -p rtProtoDV -e 6 -c 0 -i 37 -a 0 -x {1.1 4.1 -1 ------- null}
+ -t 0.248542330218583 -s 4 -d 1 -p rtProtoDV -e 6 -c 0 -i 74 -a 0 -x {4.1 1.1 -1 ------- null}
- -t 0.248542330218583 -s 4 -d 1 -p rtProtoDV -e 6 -c 0 -i 74 -a 0 -x {4.1 1.1 -1 ------- null}
h -t 0.248542330218583 -s 4 -d 1 -p rtProtoDV -e 6 -c 0 -i 74 -a 0 -x {4.1 1.1 -1 ------- null}
+ -t 0.248542330218583 -s 4 -d 1 -p rtProtoDV -e 6 -c 0 -i 75 -a 0 -x {4.1 5.2 -1 ------- null}
r -t 0.248542330218583 -s 2 -d 1 -p rtProtoDV -e 6 -c 0 -i 57 -a 0 -x {2.1 1.1 -1 ------- null}
r -t 0.249022330218583 -s 2 -d 1 -p rtProtoDV -e 6 -c 0 -i 58 -a 0 -x {2.1 5.2 -1 ------- null}
+ -t 0.249022330218583 -s 1 -d 0 -p rtProtoDV -e 6 -c 0 -i 58 -a 0 -x {2.1 5.2 -1 ------- null}
- -t 0.249022330218583 -s 1 -d 0 -p rtProtoDV -e 6 -c 0 -i 58 -a 0 -x {2.1 5.2 -1 ------- null}
h -t 0.249022330218583 -s 1 -d 0 -p rtProtoDV -e 6 -c 0 -i 58 -a 0 -x {2.1 5.2 -1 ------- null}
- -t 0.249022330218583 -s 4 -d 1 -p rtProtoDV -e 6 -c 0 -i 75 -a 0 -x {4.1 5.2 -1 ------- null}
h -t 0.249022330218583 -s 4 -d 1 -p rtProtoDV -e 6 -c 0 -i 75 -a 0 -x {4.1 5.2 -1 ------- null}
r -t 0.249502330218583 -s 2 -d 1 -p rtProtoDV -e 6 -c 0 -i 61 -a 0 -x {2.1 1.1 -1 ------- null}
+ -t 0.277940357931862 -s 1 -d 0 -p rtProtoDV -e 6 -c 0 -i 76 -a 0 -x {1.1 0.1 -1 ------- null}